s 1.000000000 _0_ AGT  --- 0 tcp 40 [0 0 0 0] [energy 10.000000 ei 0.000 es 0.000 et 0.000 er 0.000] ------- [0:0 1:0 32 0] [0 0] 0 0
r 1.000000000 _0_ RTR  --- 0 tcp 40 [0 0 0 0] [energy 10.000000 ei 0.000 es 0.000 et 0.000 er 0.000] ------- [0:0 1:0 32 0] [0 0] 0 0
s 1.000000000 _5_ AGT  --- 1 tcp 40 [0 0 0 0] [energy 10.000000 ei 0.000 es 0.000 et 0.000 er 0.000] ------- [5:0 1:1 32 0] [0 0] 0 0
r 1.000000000 _5_ RTR  --- 1 tcp 40 [0 0 0 0] [energy 10.000000 ei 0.000 es 0.000 et 0.000 er 0.000] ------- [5:0 1:1 32 0] [0 0] 0 0
s 1.000000000 _4_ AGT  --- 2 tcp 40 [0 0 0 0] [energy 10.000000 ei 0.000 es 0.000 et 0.000 er 0.000] ------- [4:0 1:2 32 0] [0 0] 0 0
r 1.000000000 _4_ RTR  --- 2 tcp 40 [0 0 0 0] [energy 10.000000 ei 0.000 es 0.000 et 0.000 er 0.000] ------- [4:0 1:2 32 0] [0 0] 0 0
s 1.000000000 _3_ AGT  --- 3 tcp 40 [0 0 0 0] [energy 10.000000 ei 0.000 es 0.000 et 0.000 er 0.000] ------- [3:0 1:6 32 0] [0 0] 0 0
r 1.000000000 _3_ RTR  --- 3 tcp 40 [0 0 0 0] [energy 10.000000 ei 0.000 es 0.000 et 0.000 er 0.000] ------- [3:0 1:6 32 0] [0 0] 0 0
s 1.000000000 _2_ AGT  --- 4 tcp 40 [0 0 0 0] [energy 10.000000 ei 0.000 es 0.000 et 0.000 er 0.000] ------- [2:0 1:3 32 0] [0 0] 0 0
r 1.000000000 _2_ RTR  --- 4 tcp 40 [0 0 0 0] [energy 10.000000 ei 0.000 es 0.000 et 0.000 er 0.000] ------- [2:0 1:3 32 0] [0 0] 0 0
s 1.000000000 _6_ AGT  --- 5 tcp 40 [0 0 0 0] [energy 10.000000 ei 0.000 es 0.000 et 0.000 er 0.000] ------- [6:0 1:4 32 0] [0 0] 0 0
r 1.000000000 _6_ RTR  --- 5 tcp 40 [0 0 0 0] [energy 10.000000 ei 0.000 es 0.000 et 0.000 er 0.000] ------- [6:0 1:4 32 0] [0 0] 0 0
s 1.000000000 _7_ AGT  --- 6 tcp 40 [0 0 0 0] [energy 10.000000 ei 0.000 es 0.000 et 0.000 er 0.000] ------- [7:0 1:5 32 0] [0 0] 0 0
r 1.000000000 _7_ RTR  --- 6 tcp 40 [0 0 0 0] [energy 10.000000 ei 0.000 es 0.000 et 0.000 er 0.000] ------- [7:0 1:5 32 0] [0 0] 0 0
s 1.000000000 _0_ RTR  --- 0 AODV 48 [0 0 0 0] [energy 10.000000 ei 0.000 es 0.000 et 0.000 er 0.000] ------- [0:255 -1:255 30 0] [0x2 1 1 [1 0] [0 4]] (REQUEST)
s 1.000000000 _5_ RTR  --- 0 AODV 48 [0 0 0 0] [energy 10.000000 ei 0.000 es 0.000 et 0.000 er 0.000] ------- [5:255 -1:255 30 0] [0x2 1 1 [1 0] [5 4]] (REQUEST)
s 1.000000000 _4_ RTR  --- 0 AODV 48 [0 0 0 0] [energy 10.000000 ei 0.000 es 0.000 et 0.000 er 0.000] ------- [4:255 -1:255 30 0] [0x2 1 1 [1 0] [4 4]] (REQUEST)
s 1.000000000 _3_ RTR  --- 0 AODV 48 [0 0 0 0] [energy 10.000000 ei 0.000 es 0.000 et 0.000 er 0.000] ------- [3:255 -1:255 30 0] [0x2 1 1 [1 0] [3 4]] (REQUEST)
s 1.000000000 _2_ RTR  --- 0 AODV 48 [0 0 0 0] [energy 10.000000 ei 0.000 es 0.000 et 0.000 er 0.000] ------- [2:255 -1:255 30 0] [0x2 1 1 [1 0] [2 4]] (REQUEST)
s 1.000000000 _6_ RTR  --- 0 AODV 48 [0 0 0 0] [energy 10.000000 ei 0.000 es 0.000 et 0.000 er 0.000] ------- [6:255 -1:255 30 0] [0x2 1 1 [1 0] [6 4]] (REQUEST)
s 1.000000000 _7_ RTR  --- 0 AODV 48 [0 0 0 0] [energy 10.000000 ei 0.000 es 0.000 et 0.000 er 0.000] ------- [7:255 -1:255 30 0] [0x2 1 1 [1 0] [7 4]] (REQUEST)
s 1.000115000 _6_ MAC  --- 0 AODV 106 [0 ffffffff 6 800] [energy 10.000000 ei 0.000 es 0.000 et 0.000 er 0.000] ------- [6:255 -1:255 30 0] [0x2 1 1 [1 0] [6 4]] (REQUEST)
N -t 1.000115 -n 7 -e 9.999576
N -t 1.000115 -n 5 -e 9.999576
N -t 1.000116 -n 4 -e 9.999576
N -t 1.000116 -n 1 -e 9.999576
N -t 1.000116 -n 3 -e 9.999576
N -t 1.000116 -n 2 -e 9.999576
s 1.000275000 _0_ MAC  --- 0 AODV 106 [0 ffffffff 0 800] [energy 10.000000 ei 0.000 es 0.000 et 0.000 er 0.000] ------- [0:255 -1:255 30 0] [0x2 1 1 [1 0] [0 4]] (REQUEST)
N -t 1.000276 -n 3 -e 9.999496
N -t 1.000276 -n 4 -e 9.999496
N -t 1.000277 -n 2 -e 9.999496
r 1.000963261 _7_ MAC  --- 0 AODV 48 [0 ffffffff 6 800] [energy 9.999576 ei 0.000 es 0.000 et 0.000 er 0.000] ------- [6:255 -1:255 30 0] [0x2 1 1 [1 0] [6 4]] (REQUEST)
r 1.000963329 _5_ MAC  --- 0 AODV 48 [0 ffffffff 6 800] [energy 9.999576 ei 0.000 es 0.000 et 0.000 er 0.000] ------- [6:255 -1:255 30 0] [0x2 1 1 [1 0] [6 4]] (REQUEST)
r 1.000963642 _4_ MAC  --- 0 AODV 48 [0 ffffffff 6 800] [energy 9.999496 ei 0.000 es 0.000 et 0.000 er 0.001] ------- [6:255 -1:255 30 0] [0x2 1 1 [1 0] [6 4]] (REQUEST)
r 1.000988261 _7_ RTR  --- 0 AODV 48 [0 ffffffff 6 800] [energy 9.999576 ei 0.000 es 0.000 et 0.000 er 0.000] ------- [6:255 -1:255 30 0] [0x2 1 1 [1 0] [6 4]] (REQUEST)
r 1.000988329 _5_ RTR  --- 0 AODV 48 [0 ffffffff 6 800] [energy 9.999576 ei 0.000 es 0.000 et 0.000 er 0.000] ------- [6:255 -1:255 30 0] [0x2 1 1 [1 0] [6 4]] (REQUEST)
r 1.000988642 _4_ RTR  --- 0 AODV 48 [0 ffffffff 6 800] [energy 9.999496 ei 0.000 es 0.000 et 0.000 er 0.001] ------- [6:255 -1:255 30 0] [0x2 1 1 [1 0] [6 4]] (REQUEST)
s 1.001213329 _5_ MAC  --- 0 AODV 106 [0 ffffffff 5 800] [energy 9.999576 ei 0.000 es 0.000 et 0.000 er 0.000] ------- [5:255 -1:255 30 0] [0x2 1 1 [1 0] [5 4]] (REQUEST)
N -t 1.001214 -n 6 -e 9.998728
N -t 1.001214 -n 4 -e 9.999072
N -t 1.001214 -n 7 -e 9.999152
N -t 1.001214 -n 3 -e 9.999072
N -t 1.001214 -n 1 -e 9.999152
N -t 1.001214 -n 2 -e 9.999072
r 1.002061658 _6_ MAC  --- 0 AODV 48 [0 ffffffff 5 800] [energy 9.998728 ei 0.000 es 0.000 et 0.001 er 0.000] ------- [5:255 -1:255 30 0] [0x2 1 1 [1 0] [5 4]] (REQUEST)
r 1.002061705 _4_ MAC  --- 0 AODV 48 [0 ffffffff 5 800] [energy 9.999072 ei 0.000 es 0.000 et 0.000 er 0.001] ------- [5:255 -1:255 30 0] [0x2 1 1 [1 0] [5 4]] (REQUEST)
r 1.002061888 _7_ MAC  --- 0 AODV 48 [0 ffffffff 5 800] [energy 9.999152 ei 0.000 es 0.000 et 0.000 er 0.001] ------- [5:255 -1:255 30 0] [0x2 1 1 [1 0] [5 4]] (REQUEST)
r 1.002062033 _3_ MAC  --- 0 AODV 48 [0 ffffffff 5 800] [energy 9.999072 ei 0.000 es 0.000 et 0.000 er 0.001] ------- [5:255 -1:255 30 0] [0x2 1 1 [1 0] [5 4]] (REQUEST)
r 1.002062060 _1_ MAC  --- 0 AODV 48 [0 ffffffff 5 800] [energy 9.999152 ei 0.000 es 0.000 et 0.000 er 0.001] ------- [5:255 -1:255 30 0] [0x2 1 1 [1 0] [5 4]] (REQUEST)
r 1.002086658 _6_ RTR  --- 0 AODV 48 [0 ffffffff 5 800] [energy 9.998728 ei 0.000 es 0.000 et 0.001 er 0.000] ------- [5:255 -1:255 30 0] [0x2 1 1 [1 0] [5 4]] (REQUEST)
r 1.002086705 _4_ RTR  --- 0 AODV 48 [0 ffffffff 5 800] [energy 9.999072 ei 0.000 es 0.000 et 0.000 er 0.001] ------- [5:255 -1:255 30 0] [0x2 1 1 [1 0] [5 4]] (REQUEST)
r 1.002086888 _7_ RTR  --- 0 AODV 48 [0 ffffffff 5 800] [energy 9.999152 ei 0.000 es 0.000 et 0.000 er 0.001] ------- [5:255 -1:255 30 0] [0x2 1 1 [1 0] [5 4]] (REQUEST)
r 1.002087033 _3_ RTR  --- 0 AODV 48 [0 ffffffff 5 800] [energy 9.999072 ei 0.000 es 0.000 et 0.000 er 0.001] ------- [5:255 -1:255 30 0] [0x2 1 1 [1 0] [5 4]] (REQUEST)
r 1.002087060 _1_ RTR  --- 0 AODV 48 [0 ffffffff 5 800] [energy 9.999152 ei 0.000 es 0.000 et 0.000 er 0.001] ------- [5:255 -1:255 30 0] [0x2 1 1 [1 0] [5 4]] (REQUEST)
s 1.002087060 _1_ RTR  --- 0 AODV 44 [0 0 0 0] [energy 9.999152 ei 0.000 es 0.000 et 0.000 er 0.001] ------- [1:255 5:255 30 5] [0x4 1 [1 4] 10.000000] (REPLY)
s 1.002126343 _7_ RTR  --- 0 AODV 48 [0 ffffffff 6 800] [energy 9.999152 ei 0.000 es 0.000 et 0.000 er 0.001] ------- [7:255 -1:255 29 0] [0x2 2 1 [1 0] [6 4]] (REQUEST)
s 1.002332033 _3_ MAC  --- 0 AODV 106 [0 ffffffff 3 800] [energy 9.999072 ei 0.000 es 0.000 et 0.000 er 0.001] ------- [3:255 -1:255 30 0] [0x2 1 1 [1 0] [3 4]] (REQUEST)
N -t 1.002332 -n 2 -e 9.998648
N -t 1.002333 -n 4 -e 9.998648
N -t 1.002333 -n 1 -e 9.998728
N -t 1.002333 -n 5 -e 9.998304
N -t 1.002333 -n 6 -e 9.998304
N -t 1.002333 -n 7 -e 9.998728
N -t 1.002333 -n 0 -e 9.998728
r 1.003180399 _2_ MAC  --- 0 AODV 48 [0 ffffffff 3 800] [energy 9.998648 ei 0.000 es 0.000 et 0.000 er 0.001] ------- [3:255 -1:255 30 0] [0x2 1 1 [1 0] [3 4]] (REQUEST)
r 1.003180541 _4_ MAC  --- 0 AODV 48 [0 ffffffff 3 800] [energy 9.998648 ei 0.000 es 0.000 et 0.000 er 0.001] ------- [3:255 -1:255 30 0] [0x2 1 1 [1 0] [3 4]] (REQUEST)
r 1.003180543 _1_ MAC  --- 0 AODV 48 [0 ffffffff 3 800] [energy 9.998728 ei 0.000 es 0.000 et 0.000 er 0.001] ------- [3:255 -1:255 30 0] [0x2 1 1 [1 0] [3 4]] (REQUEST)
r 1.003180738 _5_ MAC  --- 0 AODV 48 [0 ffffffff 3 800] [energy 9.998304 ei 0.000 es 0.000 et 0.001 er 0.001] ------- [3:255 -1:255 30 0] [0x2 1 1 [1 0] [3 4]] (REQUEST)
r 1.003205399 _2_ RTR  --- 0 AODV 48 [0 ffffffff 3 800] [energy 9.998648 ei 0.000 es 0.000 et 0.000 er 0.001] ------- [3:255 -1:255 30 0] [0x2 1 1 [1 0] [3 4]] (REQUEST)
r 1.003205541 _4_ RTR  --- 0 AODV 48 [0 ffffffff 3 800] [energy 9.998648 ei 0.000 es 0.000 et 0.000 er 0.001] ------- [3:255 -1:255 30 0] [0x2 1 1 [1 0] [3 4]] (REQUEST)
r 1.003205543 _1_ RTR  --- 0 AODV 48 [0 ffffffff 3 800] [energy 9.998728 ei 0.000 es 0.000 et 0.000 er 0.001] ------- [3:255 -1:255 30 0] [0x2 1 1 [1 0] [3 4]] (REQUEST)
s 1.003205543 _1_ RTR  --- 0 AODV 44 [0 0 0 0] [energy 9.998728 ei 0.000 es 0.000 et 0.000 er 0.001] ------- [1:255 3:255 30 3] [0x4 1 [1 6] 10.000000] (REPLY)
r 1.003205738 _5_ RTR  --- 0 AODV 48 [0 ffffffff 3 800] [energy 9.998304 ei 0.000 es 0.000 et 0.001 er 0.001] ------- [3:255 -1:255 30 0] [0x2 1 1 [1 0] [3 4]] (REQUEST)
s 1.003290543 _1_ MAC  --- 0 ARP 86 [0 ffffffff 1 806] [energy 9.998728 ei 0.000 es 0.000 et 0.000 er 0.001] ------- [REQUEST 1/1 0/5]
N -t 1.003291 -n 2 -e 9.998304
N -t 1.003291 -n 3 -e 9.997880
N -t 1.003291 -n 5 -e 9.997960
N -t 1.003291 -n 4 -e 9.998304
N -t 1.003292 -n 6 -e 9.997960
N -t 1.003292 -n 7 -e 9.998384
r 1.003978889 _2_ MAC  --- 0 ARP 28 [0 ffffffff 1 806] [energy 9.998304 ei 0.000 es 0.000 et 0.000 er 0.002] ------- [REQUEST 1/1 0/5]
r 1.003979053 _3_ MAC  --- 0 ARP 28 [0 ffffffff 1 806] [energy 9.997880 ei 0.000 es 0.000 et 0.001 er 0.001] ------- [REQUEST 1/1 0/5]
r 1.003979274 _5_ MAC  --- 0 ARP 28 [0 ffffffff 1 806] [energy 9.997960 ei 0.000 es 0.000 et 0.001 er 0.001] ------- [REQUEST 1/1 0/5]
r 1.003979340 _4_ MAC  --- 0 ARP 28 [0 ffffffff 1 806] [energy 9.998304 ei 0.000 es 0.000 et 0.000 er 0.002] ------- [REQUEST 1/1 0/5]
s 1.004069340 _4_ MAC  --- 0 AODV 106 [0 ffffffff 4 800] [energy 9.998304 ei 0.000 es 0.000 et 0.000 er 0.002] ------- [4:255 -1:255 30 0] [0x2 1 1 [1 0] [4 4]] (REQUEST)
N -t 1.004070 -n 5 -e 9.997536
N -t 1.004070 -n 3 -e 9.997456
N -t 1.004070 -n 6 -e 9.997536
N -t 1.004070 -n 7 -e 9.997960
N -t 1.004070 -n 1 -e 9.997616
N -t 1.004070 -n 2 -e 9.997880
N -t 1.004071 -n 0 -e 9.998304
s 1.004667767 _7_ RTR  --- 0 AODV 48 [0 ffffffff 5 800] [energy 9.997960 ei 0.000 es 0.000 et 0.000 er 0.002] ------- [7:255 -1:255 29 0] [0x2 2 1 [1 0] [5 4]] (REQUEST)
r 1.004917716 _5_ MAC  --- 0 AODV 48 [0 ffffffff 4 800] [energy 9.997536 ei 0.000 es 0.000 et 0.001 er 0.002] ------- [4:255 -1:255 30 0] [0x2 1 1 [1 0] [4 4]] (REQUEST)
r 1.004917848 _3_ MAC  --- 0 AODV 48 [0 ffffffff 4 800] [energy 9.997456 ei 0.000 es 0.000 et 0.001 er 0.002] ------- [4:255 -1:255 30 0] [0x2 1 1 [1 0] [4 4]] (REQUEST)
r 1.004917982 _6_ MAC  --- 0 AODV 48 [0 ffffffff 4 800] [energy 9.997536 ei 0.000 es 0.000 et 0.001 er 0.002] ------- [4:255 -1:255 30 0] [0x2 1 1 [1 0] [4 4]] (REQUEST)
r 1.004918132 _7_ MAC  --- 0 AODV 48 [0 ffffffff 4 800] [energy 9.997960 ei 0.000 es 0.000 et 0.000 er 0.002] ------- [4:255 -1:255 30 0] [0x2 1 1 [1 0] [4 4]] (REQUEST)
r 1.004918137 _1_ MAC  --- 0 AODV 48 [0 ffffffff 4 800] [energy 9.997616 ei 0.000 es 0.000 et 0.001 er 0.002] ------- [4:255 -1:255 30 0] [0x2 1 1 [1 0] [4 4]] (REQUEST)
r 1.004942716 _5_ RTR  --- 0 AODV 48 [0 ffffffff 4 800] [energy 9.997536 ei 0.000 es 0.000 et 0.001 er 0.002] ------- [4:255 -1:255 30 0] [0x2 1 1 [1 0] [4 4]] (REQUEST)
r 1.004942848 _3_ RTR  --- 0 AODV 48 [0 ffffffff 4 800] [energy 9.997456 ei 0.000 es 0.000 et 0.001 er 0.002] ------- [4:255 -1:255 30 0] [0x2 1 1 [1 0] [4 4]] (REQUEST)
r 1.004942982 _6_ RTR  --- 0 AODV 48 [0 ffffffff 4 800] [energy 9.997536 ei 0.000 es 0.000 et 0.001 er 0.002] ------- [4:255 -1:255 30 0] [0x2 1 1 [1 0] [4 4]] (REQUEST)
r 1.004943132 _7_ RTR  --- 0 AODV 48 [0 ffffffff 4 800] [energy 9.997960 ei 0.000 es 0.000 et 0.000 er 0.002] ------- [4:255 -1:255 30 0] [0x2 1 1 [1 0] [4 4]] (REQUEST)
r 1.004943137 _1_ RTR  --- 0 AODV 48 [0 ffffffff 4 800] [energy 9.997616 ei 0.000 es 0.000 et 0.001 er 0.002] ------- [4:255 -1:255 30 0] [0x2 1 1 [1 0] [4 4]] (REQUEST)
s 1.004943137 _1_ RTR  --- 0 AODV 44 [0 0 0 0] [energy 9.997616 ei 0.000 es 0.000 et 0.001 er 0.002] ------- [1:255 4:255 30 4] [0x4 1 [1 8] 10.000000] (REPLY)
s 1.004987716 _5_ MAC  --- 0 RTS 44 [52e 1 5 0] [energy 9.997536 ei 0.000 es 0.000 et 0.001 er 0.002] 
N -t 1.004988 -n 6 -e 9.997360
N -t 1.004988 -n 4 -e 9.997280
N -t 1.004988 -n 7 -e 9.997784
N -t 1.004988 -n 3 -e 9.997280
N -t 1.004988 -n 1 -e 9.997440
N -t 1.004989 -n 2 -e 9.997704
s 1.005225209 _4_ RTR  --- 0 AODV 48 [0 ffffffff 6 800] [energy 9.997280 ei 0.000 es 0.000 et 0.001 er 0.002] ------- [4:255 -1:255 29 0] [0x2 2 1 [1 0] [6 4]] (REQUEST)
r 1.005340447 _1_ MAC  --- 0 RTS 44 [52e 1 5 0] [energy 9.997440 ei 0.000 es 0.000 et 0.001 er 0.002] 
s 1.005350447 _1_ MAC  --- 0 CTS 38 [3f4 5 0 0] [energy 9.997440 ei 0.000 es 0.000 et 0.001 er 0.002] 
N -t 1.005351 -n 2 -e 9.997552
N -t 1.005351 -n 3 -e 9.997128
N -t 1.005351 -n 5 -e 9.997032
N -t 1.005351 -n 4 -e 9.997128
N -t 1.005351 -n 6 -e 9.997208
N -t 1.005352 -n 7 -e 9.997632
s 1.005574116 _4_ RTR  --- 0 AODV 48 [0 ffffffff 5 800] [energy 9.997128 ei 0.000 es 0.000 et 0.001 er 0.002] ------- [4:255 -1:255 29 0] [0x2 2 1 [1 0] [5 4]] (REQUEST)
r 1.005655178 _5_ MAC  --- 0 CTS 38 [3f4 5 0 0] [energy 9.997032 ei 0.000 es 0.000 et 0.001 er 0.002] 
s 1.005665178 _5_ MAC  --- 0 ARP 86 [13a 1 5 806] [energy 9.997032 ei 0.000 es 0.000 et 0.001 er 0.002] ------- [REPLY 5/5 1/1]
N -t 1.005666 -n 6 -e 9.996864
N -t 1.005666 -n 4 -e 9.996784
N -t 1.005666 -n 7 -e 9.997288
N -t 1.005666 -n 3 -e 9.996784
N -t 1.005666 -n 1 -e 9.996792
N -t 1.005666 -n 2 -e 9.997208
s 1.006173890 _3_ RTR  --- 0 AODV 48 [0 ffffffff 5 800] [energy 9.996784 ei 0.000 es 0.000 et 0.001 er 0.002] ------- [3:255 -1:255 29 0] [0x2 2 1 [1 0] [5 4]] (REQUEST)
r 1.006353909 _1_ MAC  --- 0 ARP 28 [13a 1 5 806] [energy 9.996792 ei 0.000 es 0.000 et 0.001 er 0.002] ------- [REPLY 5/5 1/1]
s 1.006363909 _1_ MAC  --- 0 ACK 38 [0 5 0 0] [energy 9.996792 ei 0.000 es 0.000 et 0.001 er 0.002] 
N -t 1.006364 -n 2 -e 9.997056
N -t 1.006364 -n 3 -e 9.996632
N -t 1.006365 -n 5 -e 9.996192
N -t 1.006365 -n 4 -e 9.996632
N -t 1.006365 -n 6 -e 9.996712
N -t 1.006365 -n 7 -e 9.997136
r 1.006668640 _5_ MAC  --- 0 ACK 38 [0 5 0 0] [energy 9.996192 ei 0.000 es 0.000 et 0.002 er 0.002] 
s 1.006868097 _2_ MAC  --- 0 AODV 106 [0 ffffffff 2 800] [energy 9.997056 ei 0.000 es 0.000 et 0.000 er 0.003] ------- [2:255 -1:255 30 0] [0x2 1 1 [1 0] [2 4]] (REQUEST)
N -t 1.006868 -n 1 -e 9.996064
N -t 1.006868 -n 3 -e 9.996208
N -t 1.006869 -n 4 -e 9.996208
N -t 1.006869 -n 5 -e 9.995768
N -t 1.006869 -n 6 -e 9.996288
N -t 1.006870 -n 7 -e 9.996712
N -t 1.006870 -n 0 -e 9.997880
r 1.007716443 _1_ MAC  --- 0 AODV 48 [0 ffffffff 2 800] [energy 9.996064 ei 0.000 es 0.000 et 0.001 er 0.003] ------- [2:255 -1:255 30 0] [0x2 1 1 [1 0] [2 4]] (REQUEST)
r 1.007716462 _3_ MAC  --- 0 AODV 48 [0 ffffffff 2 800] [energy 9.996208 ei 0.000 es 0.000 et 0.001 er 0.003] ------- [2:255 -1:255 30 0] [0x2 1 1 [1 0] [2 4]] (REQUEST)
r 1.007741443 _1_ RTR  --- 0 AODV 48 [0 ffffffff 2 800] [energy 9.996064 ei 0.000 es 0.000 et 0.001 er 0.003] ------- [2:255 -1:255 30 0] [0x2 1 1 [1 0] [2 4]] (REQUEST)
s 1.007741443 _1_ RTR  --- 0 AODV 44 [0 0 0 0] [energy 9.996064 ei 0.000 es 0.000 et 0.001 er 0.003] ------- [1:255 2:255 30 2] [0x4 1 [1 10] 10.000000] (REPLY)
r 1.007741462 _3_ RTR  --- 0 AODV 48 [0 ffffffff 2 800] [energy 9.996208 ei 0.000 es 0.000 et 0.001 er 0.003] ------- [2:255 -1:255 30 0] [0x2 1 1 [1 0] [2 4]] (REQUEST)
s 1.007946462 _3_ MAC  --- 0 AODV 106 [0 ffffffff 3 800] [energy 9.996208 ei 0.000 es 0.000 et 0.001 er 0.003] ------- [3:255 -1:255 29 0] [0x2 2 1 [1 0] [5 4]] (REQUEST)
N -t 1.007947 -n 2 -e 9.995784
N -t 1.007947 -n 4 -e 9.995784
N -t 1.007947 -n 1 -e 9.995640
N -t 1.007947 -n 5 -e 9.995344
N -t 1.007947 -n 6 -e 9.995864
N -t 1.007948 -n 7 -e 9.996288
N -t 1.007948 -n 0 -e 9.997456
r 1.008794828 _2_ MAC  --- 0 AODV 48 [0 ffffffff 3 800] [energy 9.995784 ei 0.000 es 0.000 et 0.001 er 0.003] ------- [3:255 -1:255 29 0] [0x2 2 1 [1 0] [5 4]] (REQUEST)
r 1.008794970 _4_ MAC  --- 0 AODV 48 [0 ffffffff 3 800] [energy 9.995784 ei 0.000 es 0.000 et 0.001 er 0.003] ------- [3:255 -1:255 29 0] [0x2 2 1 [1 0] [5 4]] (REQUEST)
r 1.008794972 _1_ MAC  --- 0 AODV 48 [0 ffffffff 3 800] [energy 9.995640 ei 0.000 es 0.000 et 0.001 er 0.003] ------- [3:255 -1:255 29 0] [0x2 2 1 [1 0] [5 4]] (REQUEST)
r 1.008795167 _5_ MAC  --- 0 AODV 48 [0 ffffffff 3 800] [energy 9.995344 ei 0.000 es 0.000 et 0.002 er 0.003] ------- [3:255 -1:255 29 0] [0x2 2 1 [1 0] [5 4]] (REQUEST)
r 1.008819828 _2_ RTR  --- 0 AODV 48 [0 ffffffff 3 800] [energy 9.995784 ei 0.000 es 0.000 et 0.001 er 0.003] ------- [3:255 -1:255 29 0] [0x2 2 1 [1 0] [5 4]] (REQUEST)
r 1.008819970 _4_ RTR  --- 0 AODV 48 [0 ffffffff 3 800] [energy 9.995784 ei 0.000 es 0.000 et 0.001 er 0.003] ------- [3:255 -1:255 29 0] [0x2 2 1 [1 0] [5 4]] (REQUEST)
r 1.008819972 _1_ RTR  --- 0 AODV 48 [0 ffffffff 3 800] [energy 9.995640 ei 0.000 es 0.000 et 0.001 er 0.003] ------- [3:255 -1:255 29 0] [0x2 2 1 [1 0] [5 4]] (REQUEST)
r 1.008820167 _5_ RTR  --- 0 AODV 48 [0 ffffffff 3 800] [energy 9.995344 ei 0.000 es 0.000 et 0.002 er 0.003] ------- [3:255 -1:255 29 0] [0x2 2 1 [1 0] [5 4]] (REQUEST)
s 1.009004972 _1_ MAC  --- 0 ARP 86 [0 ffffffff 1 806] [energy 9.995640 ei 0.000 es 0.000 et 0.001 er 0.003] ------- [REQUEST 1/1 0/3]
N -t 1.009005 -n 2 -e 9.995440
N -t 1.009005 -n 3 -e 9.995016
N -t 1.009006 -n 5 -e 9.995000
N -t 1.009006 -n 4 -e 9.995440
N -t 1.009006 -n 6 -e 9.995520
N -t 1.009006 -n 7 -e 9.995944
s 1.009585606 _5_ RTR  --- 0 AODV 48 [0 ffffffff 6 800] [energy 9.995000 ei 0.000 es 0.000 et 0.002 er 0.003] ------- [5:255 -1:255 29 0] [0x2 2 1 [1 0] [6 4]] (REQUEST)
r 1.009693318 _2_ MAC  --- 0 ARP 28 [0 ffffffff 1 806] [energy 9.995440 ei 0.000 es 0.000 et 0.001 er 0.004] ------- [REQUEST 1/1 0/3]
r 1.009693482 _3_ MAC  --- 0 ARP 28 [0 ffffffff 1 806] [energy 9.995016 ei 0.000 es 0.000 et 0.002 er 0.003] ------- [REQUEST 1/1 0/3]
r 1.009693703 _5_ MAC  --- 0 ARP 28 [0 ffffffff 1 806] [energy 9.995000 ei 0.000 es 0.000 et 0.002 er 0.003] ------- [REQUEST 1/1 0/3]
r 1.009693769 _4_ MAC  --- 0 ARP 28 [0 ffffffff 1 806] [energy 9.995440 ei 0.000 es 0.000 et 0.001 er 0.004] ------- [REQUEST 1/1 0/3]
s 1.009783769 _4_ MAC  --- 0 AODV 106 [0 ffffffff 4 800] [energy 9.995440 ei 0.000 es 0.000 et 0.001 er 0.004] ------- [4:255 -1:255 29 0] [0x2 2 1 [1 0] [6 4]] (REQUEST)
N -t 1.009784 -n 5 -e 9.994576
N -t 1.009784 -n 3 -e 9.994592
N -t 1.009784 -n 6 -e 9.995096
N -t 1.009785 -n 7 -e 9.995520
N -t 1.009785 -n 1 -e 9.994528
N -t 1.009785 -n 2 -e 9.995016
N -t 1.009785 -n 0 -e 9.997032
s 1.010128467 _2_ RTR  --- 0 AODV 48 [0 ffffffff 3 800] [energy 9.995016 ei 0.000 es 0.000 et 0.001 er 0.004] ------- [2:255 -1:255 29 0] [0x2 2 1 [1 0] [3 4]] (REQUEST)
s 1.010156944 _6_ RTR  --- 0 AODV 48 [0 ffffffff 5 800] [energy 9.995096 ei 0.000 es 0.000 et 0.001 er 0.004] ------- [6:255 -1:255 29 0] [0x2 2 1 [1 0] [5 4]] (REQUEST)
r 1.010632145 _5_ MAC  --- 0 AODV 48 [0 ffffffff 4 800] [energy 9.994576 ei 0.000 es 0.000 et 0.002 er 0.004] ------- [4:255 -1:255 29 0] [0x2 2 1 [1 0] [6 4]] (REQUEST)
r 1.010632277 _3_ MAC  --- 0 AODV 48 [0 ffffffff 4 800] [energy 9.994592 ei 0.000 es 0.000 et 0.002 er 0.004] ------- [4:255 -1:255 29 0] [0x2 2 1 [1 0] [6 4]] (REQUEST)
r 1.010632411 _6_ MAC  --- 0 AODV 48 [0 ffffffff 4 800] [energy 9.995096 ei 0.000 es 0.000 et 0.001 er 0.004] ------- [4:255 -1:255 29 0] [0x2 2 1 [1 0] [6 4]] (REQUEST)
r 1.010632561 _7_ MAC  --- 0 AODV 48 [0 ffffffff 4 800] [energy 9.995520 ei 0.000 es 0.000 et 0.000 er 0.004] ------- [4:255 -1:255 29 0] [0x2 2 1 [1 0] [6 4]] (REQUEST)
r 1.010632566 _1_ MAC  --- 0 AODV 48 [0 ffffffff 4 800] [energy 9.994528 ei 0.000 es 0.000 et 0.002 er 0.003] ------- [4:255 -1:255 29 0] [0x2 2 1 [1 0] [6 4]] (REQUEST)
r 1.010657145 _5_ RTR  --- 0 AODV 48 [0 ffffffff 4 800] [energy 9.994576 ei 0.000 es 0.000 et 0.002 er 0.004] ------- [4:255 -1:255 29 0] [0x2 2 1 [1 0] [6 4]] (REQUEST)
r 1.010657277 _3_ RTR  --- 0 AODV 48 [0 ffffffff 4 800] [energy 9.994592 ei 0.000 es 0.000 et 0.002 er 0.004] ------- [4:255 -1:255 29 0] [0x2 2 1 [1 0] [6 4]] (REQUEST)
r 1.010657411 _6_ RTR  --- 0 AODV 48 [0 ffffffff 4 800] [energy 9.995096 ei 0.000 es 0.000 et 0.001 er 0.004] ------- [4:255 -1:255 29 0] [0x2 2 1 [1 0] [6 4]] (REQUEST)
r 1.010657561 _7_ RTR  --- 0 AODV 48 [0 ffffffff 4 800] [energy 9.995520 ei 0.000 es 0.000 et 0.000 er 0.004] ------- [4:255 -1:255 29 0] [0x2 2 1 [1 0] [6 4]] (REQUEST)
r 1.010657566 _1_ RTR  --- 0 AODV 48 [0 ffffffff 4 800] [energy 9.994528 ei 0.000 es 0.000 et 0.002 er 0.003] ------- [4:255 -1:255 29 0] [0x2 2 1 [1 0] [6 4]] (REQUEST)
s 1.010657566 _1_ RTR  --- 0 AODV 44 [0 0 0 0] [energy 9.994528 ei 0.000 es 0.000 et 0.002 er 0.003] ------- [1:255 6:255 30 4] [0x4 1 [1 12] 10.000000] (REPLY)
D 1.010657566 _1_ IFQ  ARP 0 AODV 44 [0 0 1 800] [energy 9.994528 ei 0.000 es 0.000 et 0.002 er 0.003] ------- [1:255 4:255 30 4] [0x4 1 [1 8] 10.000000] (REPLY)
s 1.010742561 _7_ MAC  --- 0 AODV 106 [0 ffffffff 7 800] [energy 9.995520 ei 0.000 es 0.000 et 0.000 er 0.004] ------- [7:255 -1:255 30 0] [0x2 1 1 [1 0] [7 4]] (REQUEST)
N -t 1.010743 -n 6 -e 9.994672
N -t 1.010743 -n 5 -e 9.994152
N -t 1.010743 -n 4 -e 9.994168
N -t 1.010744 -n 3 -e 9.994168
N -t 1.010744 -n 1 -e 9.994104
N -t 1.010744 -n 2 -e 9.994592
r 1.011590822 _6_ MAC  --- 0 AODV 48 [0 ffffffff 7 800] [energy 9.994672 ei 0.000 es 0.000 et 0.001 er 0.004] ------- [7:255 -1:255 30 0] [0x2 1 1 [1 0] [7 4]] (REQUEST)
r 1.011591120 _5_ MAC  --- 0 AODV 48 [0 ffffffff 7 800] [energy 9.994152 ei 0.000 es 0.000 et 0.002 er 0.004] ------- [7:255 -1:255 30 0] [0x2 1 1 [1 0] [7 4]] (REQUEST)
r 1.011591354 _4_ MAC  --- 0 AODV 48 [0 ffffffff 7 800] [energy 9.994168 ei 0.000 es 0.000 et 0.002 er 0.004] ------- [7:255 -1:255 30 0] [0x2 1 1 [1 0] [7 4]] (REQUEST)
s 1.011603990 _5_ RTR  --- 0 AODV 48 [0 ffffffff 3 800] [energy 9.994152 ei 0.000 es 0.000 et 0.002 er 0.004] ------- [5:255 -1:255 29 0] [0x2 2 1 [1 0] [3 4]] (REQUEST)
r 1.011615822 _6_ RTR  --- 0 AODV 48 [0 ffffffff 7 800] [energy 9.994672 ei 0.000 es 0.000 et 0.001 er 0.004] ------- [7:255 -1:255 30 0] [0x2 1 1 [1 0] [7 4]] (REQUEST)
r 1.011616120 _5_ RTR  --- 0 AODV 48 [0 ffffffff 7 800] [energy 9.994152 ei 0.000 es 0.000 et 0.002 er 0.004] ------- [7:255 -1:255 30 0] [0x2 1 1 [1 0] [7 4]] (REQUEST)
r 1.011616354 _4_ RTR  --- 0 AODV 48 [0 ffffffff 7 800] [energy 9.994168 ei 0.000 es 0.000 et 0.002 er 0.004] ------- [7:255 -1:255 30 0] [0x2 1 1 [1 0] [7 4]] (REQUEST)
s 1.011700822 _6_ MAC  --- 0 AODV 106 [0 ffffffff 6 800] [energy 9.994672 ei 0.000 es 0.000 et 0.001 er 0.004] ------- [6:255 -1:255 29 0] [0x2 2 1 [1 0] [5 4]] (REQUEST)
N -t 1.011701 -n 7 -e 9.994248
N -t 1.011701 -n 5 -e 9.993728
N -t 1.011701 -n 4 -e 9.993744
N -t 1.011702 -n 1 -e 9.993680
N -t 1.011702 -n 3 -e 9.993744
N -t 1.011702 -n 2 -e 9.994168
s 1.011716337 _3_ RTR  --- 0 AODV 48 [0 ffffffff 4 800] [energy 9.993744 ei 0.000 es 0.000 et 0.002 er 0.005] ------- [3:255 -1:255 29 0] [0x2 2 1 [1 0] [4 4]] (REQUEST)
s 1.011783538 _3_ RTR  --- 0 AODV 48 [0 ffffffff 2 800] [energy 9.993744 ei 0.000 es 0.000 et 0.002 er 0.005] ------- [3:255 -1:255 29 0] [0x2 2 1 [1 0] [2 4]] (REQUEST)
s 1.011826214 _4_ RTR  --- 0 AODV 48 [0 ffffffff 3 800] [energy 9.993744 ei 0.000 es 0.000 et 0.002 er 0.005] ------- [4:255 -1:255 29 0] [0x2 2 1 [1 0] [3 4]] (REQUEST)
r 1.012549082 _7_ MAC  --- 0 AODV 48 [0 ffffffff 6 800] [energy 9.994248 ei 0.000 es 0.000 et 0.001 er 0.005] ------- [6:255 -1:255 29 0] [0x2 2 1 [1 0] [5 4]] (REQUEST)
r 1.012549151 _5_ MAC  --- 0 AODV 48 [0 ffffffff 6 800] [energy 9.993728 ei 0.000 es 0.000 et 0.002 er 0.004] ------- [6:255 -1:255 29 0] [0x2 2 1 [1 0] [5 4]] (REQUEST)
r 1.012549464 _4_ MAC  --- 0 AODV 48 [0 ffffffff 6 800] [energy 9.993744 ei 0.000 es 0.000 et 0.002 er 0.005] ------- [6:255 -1:255 29 0] [0x2 2 1 [1 0] [5 4]] (REQUEST)
s 1.012565301 _6_ RTR  --- 0 AODV 48 [0 ffffffff 4 800] [energy 9.993824 ei 0.000 es 0.000 et 0.002 er 0.004] ------- [6:255 -1:255 29 0] [0x2 2 1 [1 0] [4 4]] (REQUEST)
r 1.012574082 _7_ RTR  --- 0 AODV 48 [0 ffffffff 6 800] [energy 9.994248 ei 0.000 es 0.000 et 0.001 er 0.005] ------- [6:255 -1:255 29 0] [0x2 2 1 [1 0] [5 4]] (REQUEST)
r 1.012574151 _5_ RTR  --- 0 AODV 48 [0 ffffffff 6 800] [energy 9.993728 ei 0.000 es 0.000 et 0.002 er 0.004] ------- [6:255 -1:255 29 0] [0x2 2 1 [1 0] [5 4]] (REQUEST)
r 1.012574464 _4_ RTR  --- 0 AODV 48 [0 ffffffff 6 800] [energy 9.993744 ei 0.000 es 0.000 et 0.002 er 0.005] ------- [6:255 -1:255 29 0] [0x2 2 1 [1 0] [5 4]] (REQUEST)
s 1.012598822 _6_ MAC  --- 0 AODV 106 [0 ffffffff 6 800] [energy 9.993824 ei 0.000 es 0.000 et 0.002 er 0.004] ------- [6:255 -1:255 29 0] [0x2 2 1 [1 0] [4 4]] (REQUEST)
N -t 1.012599 -n 7 -e 9.993824
N -t 1.012599 -n 5 -e 9.993304
N -t 1.012599 -n 4 -e 9.993320
N -t 1.012600 -n 1 -e 9.993256
N -t 1.012600 -n 3 -e 9.993320
N -t 1.012600 -n 2 -e 9.993744
r 1.013447082 _7_ MAC  --- 0 AODV 48 [0 ffffffff 6 800] [energy 9.993824 ei 0.000 es 0.000 et 0.001 er 0.005] ------- [6:255 -1:255 29 0] [0x2 2 1 [1 0] [4 4]] (REQUEST)
r 1.013447151 _5_ MAC  --- 0 AODV 48 [0 ffffffff 6 800] [energy 9.993304 ei 0.000 es 0.000 et 0.002 er 0.005] ------- [6:255 -1:255 29 0] [0x2 2 1 [1 0] [4 4]] (REQUEST)
r 1.013447464 _4_ MAC  --- 0 AODV 48 [0 ffffffff 6 800] [energy 9.993320 ei 0.000 es 0.000 et 0.002 er 0.005] ------- [6:255 -1:255 29 0] [0x2 2 1 [1 0] [4 4]] (REQUEST)
s 1.013453782 _5_ RTR  --- 0 AODV 48 [0 ffffffff 4 800] [energy 9.993304 ei 0.000 es 0.000 et 0.002 er 0.005] ------- [5:255 -1:255 29 0] [0x2 2 1 [1 0] [4 4]] (REQUEST)
r 1.013472082 _7_ RTR  --- 0 AODV 48 [0 ffffffff 6 800] [energy 9.993824 ei 0.000 es 0.000 et 0.001 er 0.005] ------- [6:255 -1:255 29 0] [0x2 2 1 [1 0] [4 4]] (REQUEST)
r 1.013472151 _5_ RTR  --- 0 AODV 48 [0 ffffffff 6 800] [energy 9.993304 ei 0.000 es 0.000 et 0.002 er 0.005] ------- [6:255 -1:255 29 0] [0x2 2 1 [1 0] [4 4]] (REQUEST)
r 1.013472464 _4_ RTR  --- 0 AODV 48 [0 ffffffff 6 800] [energy 9.993320 ei 0.000 es 0.000 et 0.002 er 0.005] ------- [6:255 -1:255 29 0] [0x2 2 1 [1 0] [4 4]] (REQUEST)
s 1.013557151 _5_ MAC  --- 0 AODV 106 [0 ffffffff 5 800] [energy 9.993304 ei 0.000 es 0.000 et 0.002 er 0.005] ------- [5:255 -1:255 29 0] [0x2 2 1 [1 0] [6 4]] (REQUEST)
N -t 1.013557 -n 6 -e 9.992552
N -t 1.013558 -n 4 -e 9.992896
N -t 1.013558 -n 7 -e 9.993400
N -t 1.013558 -n 3 -e 9.992896
N -t 1.013558 -n 1 -e 9.992832
N -t 1.013558 -n 2 -e 9.993320
s 1.013992587 _7_ RTR  --- 0 AODV 48 [0 ffffffff 4 800] [energy 9.993400 ei 0.000 es 0.000 et 0.001 er 0.006] ------- [7:255 -1:255 29 0] [0x2 2 1 [1 0] [4 4]] (REQUEST)
s 1.014013904 _3_ RTR  --- 0 AODV 48 [0 ffffffff 4 800] [energy 9.992896 ei 0.000 es 0.000 et 0.002 er 0.005] ------- [3:255 -1:255 28 0] [0x2 3 1 [1 0] [6 4]] (REQUEST)
s 1.014186058 _5_ RTR  --- 0 AODV 48 [0 ffffffff 7 800] [energy 9.992456 ei 0.000 es 0.000 et 0.003 er 0.005] ------- [5:255 -1:255 29 0] [0x2 2 1 [1 0] [7 4]] (REQUEST)
r 1.014405480 _6_ MAC  --- 0 AODV 48 [0 ffffffff 5 800] [energy 9.992552 ei 0.000 es 0.000 et 0.003 er 0.005] ------- [5:255 -1:255 29 0] [0x2 2 1 [1 0] [6 4]] (REQUEST)
r 1.014405527 _4_ MAC  --- 0 AODV 48 [0 ffffffff 5 800] [energy 9.992896 ei 0.000 es 0.000 et 0.002 er 0.005] ------- [5:255 -1:255 29 0] [0x2 2 1 [1 0] [6 4]] (REQUEST)
r 1.014405710 _7_ MAC  --- 0 AODV 48 [0 ffffffff 5 800] [energy 9.993400 ei 0.000 es 0.000 et 0.001 er 0.006] ------- [5:255 -1:255 29 0] [0x2 2 1 [1 0] [6 4]] (REQUEST)
r 1.014405855 _3_ MAC  --- 0 AODV 48 [0 ffffffff 5 800] [energy 9.992896 ei 0.000 es 0.000 et 0.002 er 0.005] ------- [5:255 -1:255 29 0] [0x2 2 1 [1 0] [6 4]] (REQUEST)
r 1.014405882 _1_ MAC  --- 0 AODV 48 [0 ffffffff 5 800] [energy 9.992832 ei 0.000 es 0.000 et 0.002 er 0.005] ------- [5:255 -1:255 29 0] [0x2 2 1 [1 0] [6 4]] (REQUEST)
r 1.014430480 _6_ RTR  --- 0 AODV 48 [0 ffffffff 5 800] [energy 9.992552 ei 0.000 es 0.000 et 0.003 er 0.005] ------- [5:255 -1:255 29 0] [0x2 2 1 [1 0] [6 4]] (REQUEST)
r 1.014430527 _4_ RTR  --- 0 AODV 48 [0 ffffffff 5 800] [energy 9.992896 ei 0.000 es 0.000 et 0.002 er 0.005] ------- [5:255 -1:255 29 0] [0x2 2 1 [1 0] [6 4]] (REQUEST)
r 1.014430710 _7_ RTR  --- 0 AODV 48 [0 ffffffff 5 800] [energy 9.993400 ei 0.000 es 0.000 et 0.001 er 0.006] ------- [5:255 -1:255 29 0] [0x2 2 1 [1 0] [6 4]] (REQUEST)
r 1.014430855 _3_ RTR  --- 0 AODV 48 [0 ffffffff 5 800] [energy 9.992896 ei 0.000 es 0.000 et 0.002 er 0.005] ------- [5:255 -1:255 29 0] [0x2 2 1 [1 0] [6 4]] (REQUEST)
r 1.014430882 _1_ RTR  --- 0 AODV 48 [0 ffffffff 5 800] [energy 9.992832 ei 0.000 es 0.000 et 0.002 er 0.005] ------- [5:255 -1:255 29 0] [0x2 2 1 [1 0] [6 4]] (REQUEST)
s 1.014555882 _1_ MAC  --- 0 RTS 44 [5ae 5 1 0] [energy 9.992832 ei 0.000 es 0.000 et 0.002 er 0.005] 
N -t 1.014556 -n 2 -e 9.993144
N -t 1.014556 -n 3 -e 9.992720
N -t 1.014557 -n 5 -e 9.992280
N -t 1.014557 -n 4 -e 9.992720
N -t 1.014557 -n 6 -e 9.992376
N -t 1.014557 -n 7 -e 9.993224
r 1.014908613 _5_ MAC  --- 0 RTS 44 [5ae 5 1 0] [energy 9.992280 ei 0.000 es 0.000 et 0.003 er 0.005] 
s 1.014918613 _5_ MAC  --- 0 CTS 38 [474 1 0 0] [energy 9.992280 ei 0.000 es 0.000 et 0.003 er 0.005] 
N -t 1.014919 -n 6 -e 9.992224
N -t 1.014919 -n 4 -e 9.992568
N -t 1.014919 -n 7 -e 9.993072
N -t 1.014919 -n 3 -e 9.992568
N -t 1.014919 -n 1 -e 9.992328
N -t 1.014920 -n 2 -e 9.992992
r 1.015223344 _1_ MAC  --- 0 CTS 38 [474 1 0 0] [energy 9.992328 ei 0.000 es 0.000 et 0.002 er 0.005] 
s 1.015233344 _1_ MAC  --- 0 AODV 102 [13a 5 1 800] [energy 9.992328 ei 0.000 es 0.000 et 0.002 er 0.005] ------- [1:255 5:255 30 5] [0x4 1 [1 4] 10.000000] (REPLY)
N -t 1.015234 -n 2 -e 9.992584
N -t 1.015234 -n 3 -e 9.992160
N -t 1.015234 -n 5 -e 9.991568
N -t 1.015234 -n 4 -e 9.992160
N -t 1.015234 -n 6 -e 9.991816
N -t 1.015235 -n 7 -e 9.992664